 TITLE = "radius"
 VARIABLES = "X", "Y", "Z", "field"
 Zone N = 450, E = 272, DATAPACKING = POINT, ZONETYPE = FEBRICK

 -56.78961 -24.20572 -71.61516 1.0
 -48.38428 -22.35619 -73.4608 1.0
 -56.83788 -11.06137 -68.53486 1.0
 -44.21956 -7.64108 -70.79639 1.0
 -55.37442 -31.94723 -51.43213 1.0
 -41.015 -36.62945 -57.47752 1.0
 -52.21579 -15.73734 -45.77216 1.0
 -36.02262 -11.00493 -46.98684 1.0
 -51.99385 -26.90309 -73.23071 1.0
 -49.50482 -7.131369 -69.4705 1.0
 -48.37646 -34.03553 -54.83952 1.0
 -43.58212 -9.820313 -43.11015 1.0
 -58.03428 -17.80327 -69.88704 1.0
 -54.72816 -23.24486 -48.32586 1.0
 -51.0273 -16.80272 -71.09081 1.0
 -45.58938 -21.66552 -51.61531 1.0
 -45.71118 -15.44991 -72.29116 1.0
 -36.9037 -21.85964 -53.92337 1.0
 -58.20356 -28.97243 -62.07431 1.0
 -50.0757 -31.48918 -64.13622 1.0
 -57.29917 -19.86553 -60.21019 1.0
 -48.51746 -19.79692 -61.18617 1.0
 -44.72443 -29.38991 -65.11871 1.0
 -41.54044 -18.48674 -62.59951 1.0
 -57.01858 -11.64485 -58.24154 1.0
 -46.50638 -5.037379 -58.81392 1.0
 -35.93241 -6.879408 -60.52478 1.0
 -54.39928 -26.10294 -72.55037 1.0
 -53.67687 -17.18498 -70.24938 1.0
 -53.74731 -30.12011 -62.91138 1.0
 -52.00915 -19.94615 -60.52045 1.0
 -49.90757 -26.0141 -73.66734 1.0
 -48.33413 -16.58687 -71.89618 1.0
 -46.74379 -32.2399 -65.2478 1.0
 -45.14325 -19.75363 -62.25604 1.0
 -53.22771 -8.720989 -68.78843 1.0
 -51.10808 -8.430415 -58.54677 1.0
 -46.53708 -6.533234 -70.09675 1.0
 -41.40012 -4.805985 -59.15869 1.0
 -52.15454 -32.52901 -53.10137 1.0
 -50.42508 -22.21903 -49.7887 1.0
 -45.24233 -36.97411 -56.22269 1.0
 -41.26706 -21.82534 -51.17895 1.0
 -48.46906 -12.764 -45.32433 1.0
 -39.05005 -9.231293 -41.11539 1.0
 -57.69086 -21.12369 -70.91073 1.0
 -58.07931 -24.93445 -61.26166 1.0
 -54.23524 -21.03977 -71.41433 1.0
 -52.7934 -23.82357 -61.67243 1.0
 -51.97862 -20.89674 -72.19712 1.0
 -49.75115 -24.14222 -62.72066 1.0
 -49.60036 -20.79761 -72.77335 1.0
 -46.70917 -24.45581 -63.76933 1.0
 -58.18762 -14.1973 -68.97953 1.0
 -58.61992 -15.18785 -58.61367 1.0
 -53.18253 -13.10428 -69.16698 1.0
 -51.23936 -15.6624 -59.71194 1.0
 -50.07682 -12.75508 -70.02336 1.0
 -47.42658 -15.31038 -60.28355 1.0
 -47.03368 -12.21912 -70.96862 1.0
 -43.60034 -15.04967 -60.73933 1.0
 -55.53716 -28.18452 -49.88497 1.0
 -51.31963 -27.73746 -51.66086 1.0
 -46.59855 -28.11901 -53.71384 1.0
 -41.3513 -30.28926 -54.31961 1.0
 -53.7654 -18.84747 -45.96133 1.0
 -49.01321 -17.06121 -46.74137 1.0
 -43.9072 -15.39683 -47.8066 1.0
 -39.43129 -15.53218 -47.34112 1.0
 -47.18995 -19.12301 -72.87307 1.0
 -43.50172 -24.46031 -63.90832 1.0
 -44.22458 -11.19273 -71.56005 1.0
 -39.60151 -12.78942 -61.33688 1.0
 -36.62365 -31.29175 -54.83084 1.0
 -35.37436 -15.97014 -50.39202 1.0
 -56.93075 -26.70033 -66.50853 1.0
 -53.89949 -28.10962 -67.46809 1.0
 -57.31768 -23.20134 -65.56029 1.0
 -53.80377 -21.86681 -66.46042 1.0
 -51.16857 -28.49556 -68.38096 1.0
 -48.5733 -28.11868 -68.97408 1.0
 -51.30288 -21.86643 -67.32063 1.0
 -48.79787 -21.85762 -68.15785 1.0
 -57.31456 -19.08515 -64.67319 1.0
 -53.22162 -17.97146 -65.40003 1.0
 -58.10412 -15.18832 -63.71517 1.0
 -52.65167 -14.1362 -64.40697 1.0
 -50.22884 -17.75528 -65.93621 1.0
 -47.3588 -17.56704 -66.91732 1.0
 -49.29869 -13.69014 -65.09444 1.0
 -45.96653 -13.2638 -65.82188 1.0
 -58.36005 -30.47674 -57.1829 1.0
 -53.14633 -31.19364 -58.25044 1.0
 -58.43122 -26.15546 -56.11015 1.0
 -51.77409 -25.7791 -56.88551 1.0
 -48.70669 -33.34298 -59.68186 1.0
 -44.43691 -35.96729 -61.92209 1.0
 -48.19931 -26.4171 -58.12046 1.0
 -44.62904 -27.05161 -59.37845 1.0
 -57.12056 -21.12277 -55.10237 1.0
 -50.7685 -21.61931 -55.67546 1.0
 -58.03611 -15.85659 -53.57152 1.0
 -49.76665 -17.26069 -54.76011 1.0
 -46.8061 -21.83857 -56.43613 1.0
 -42.93114 -21.94024 -57.59366 1.0
 -45.54312 -17.12477 -55.32341 1.0
 -41.27912 -16.82318 -55.81384 1.0
 -46.7562 -24.87042 -68.67014 1.0
 -45.55273 -21.26544 -67.95383 1.0
 -43.67186 -16.33812 -66.94581 1.0
 -41.98196 -12.09977 -66.14749 1.0
 -41.37438 -32.71918 -61.90274 1.0
 -39.89748 -27.53655 -60.38131 1.0
 -38.48903 -20.62042 -58.43123 1.0
 -35.76449 -14.40361 -57.18648 1.0
 -56.8371 -11.4745 -63.34504 1.0
 -52.06824 -8.592788 -63.7376 1.0
 -47.79231 -5.901076 -64.19236 1.0
 -43.12505 -4.981734 -64.79762 1.0
 -56.41872 -12.44542 -52.77445 1.0
 -50.12394 -9.140481 -52.83842 1.0
 -45.25766 -6.071925 -52.85846 1.0
 -40.16106 -4.668667 -53.269 1.0
 -39.02042 -6.514341 -65.7157 1.0
 -35.08413 -8.063046 -54.86651 1.0
 -47.30089 -8.272751 -80.4499 1.0
 -49.63942 -20.52929 -81.88155 1.0
 -57.20651 -9.743925 -78.88245 1.0
 -57.12506 -21.60946 -80.90504 1.0
 -52.48597 -17.95263 -97.7271 1.0
 -50.36344 -7.730083 -96.70533 1.0
 -59.02012 -7.548917 -95.32659 1.0
 -59.22456 -18.11981 -96.55305 1.0
 -55.3427 -15.32641 -116.1055 1.0
 -53.15616 -6.35774 -115.6247 1.0
 -60.9029 -5.277051 -113.7752 1.0
 -62.15262 -14.39134 -114.8207 1.0
 -58.74055 -13.07552 -134.7985 1.0
 -56.43617 -4.837547 -135.2224 1.0
 -64.0934 -3.242652 -133.3173 1.0
 -65.25829 -11.72986 -133.2921 1.0
 -62.75956 -11.82726 -154.1542 1.0
 -59.54184 -3.807611 -154.5999 1.0
 -67.2244 -11.88479 -174.393 1.0
 -63.10123 -3.583458 -175.3199 1.0
 -70.99033 -12.1647 -197.2889 1.0
 -66.6404 -4.27389 -198.0317 1.0
 -67.38756 -1.838539 -153.3919 1.0
 -70.31438 -0.6878524 -174.239 1.0
 -74.01672 -1.346811 -196.4921 1.0
 -68.8773 -9.606025 -153.0969 1.0
 -72.79757 -9.03746 -173.2211 1.0
 -76.48849 -9.55256 -196.0586 1.0
 -75.57783 -13.73 -223.5218 1.0
 -78.3503 -17.33211 -246.7661 1.0
 -83.21966 -15.53087 -270.2013 1.0
 -84.47407 -15.93602 -277.7874 1.0
 -70.7816 -5.746845 -225.0712 1.0
 -73.87305 -7.710597 -247.5153 1.0
 -77.87083 -8.838286 -270.5051 1.0
 -78.36231 -7.492949 -278.5739 1.0
 -85.856 -18.34851 -284.3327 1.0
 -76.38659 -6.336129 -284.5493 1.0
 -87.01914 -16.41008 -291.6024 1.0
 -78.59192 -6.027298 -292.064 1.0
 -81.53125 -10.11518 -222.627 1.0
 -86.07816 -12.06293 -245.5472 1.0
 -90.29019 -11.57546 -268.7766 1.0
 -92.41309 -11.26039 -275.5918 1.0
 -96.06284 -11.70936 -281.6264 1.0
 -97.83514 -10.99502 -289.0968 1.0
 -81.91626 -3.949283 -246.3842 1.0
 -84.93365 -5.189796 -268.7661 1.0
 -86.46465 -2.993425 -276.0868 1.0
 -88.97142 1.329058 -281.2136 1.0
 -90.77649 2.610562 -287.8333 1.0
 -78.28037 -2.683036 -223.7724 1.0
 -88.87852 -15.31218 -276.9926 1.0
 -81.95595 -3.120354 -277.1642 1.0
 -87.55045 -15.20843 -269.6349 1.0
 -80.87202 -5.197512 -269.6893 1.0
 -91.85184 -17.15854 -283.1878 1.0
 -81.7022 0.03713127 -283.1872 1.0
 -93.00761 -15.71397 -290.6357 1.0
 -82.97717 0.6720216 -289.3541 1.0
 -91.2335 -6.018721 -275.3411 1.0
 -89.19556 -7.119782 -268.1978 1.0
 -85.87554 -9.95889 -277.5858 1.0
 -84.50507 -10.62073 -270.0546 1.0
 -95.57365 -3.47576 -280.8232 1.0
 -86.91789 -9.33798 -283.3637 1.0
 -95.61855 -0.9081826 -288.3296 1.0
 -87.7858 -7.172226 -287.963 1.0
 -79.75045 -13.41486 -278.3781 1.0
 -79.52096 -13.56914 -270.6667 1.0
 -79.13299 -14.7378 -284.8177 1.0
 -80.79745 -13.292 -292.5706 1.0
 -91.09657 -13.75268 -276.2925 1.0
 -87.91051 -8.76464 -277.0536 1.0
 -89.27399 -13.75149 -269.088 1.0
 -86.25919 -9.76987 -269.7012 1.0
 -94.14527 -15.13512 -282.5188 1.0
 -89.60593 -7.4715 -282.485 1.0
 -95.62755 -13.90698 -289.9545 1.0
 -91.68113 -3.97311 -287.6311 1.0
 -86.77841 -15.92027 -277.506 1.0
 -83.84056 -11.15313 -278.118 1.0
 -85.39237 -15.626 -269.8869 1.0
 -82.75095 -11.47158 -270.4079 1.0
 -89.44321 -18.24919 -283.5958 1.0
 -84.22985 -11.20446 -284.2425 1.0
 -90.40188 -16.48742 -290.9822 1.0
 -84.25812 -10.19164 -290.0857 1.0
 -84.52542 -2.695578 -276.4046 1.0
 -83.14265 -4.967083 -269.1567 1.0
 -85.22047 1.25531 -282.0324 1.0
 -87.06245 2.386866 -288.1805 1.0
 -79.44398 -5.091747 -277.9591 1.0
 -78.77873 -6.702359 -270.0733 1.0
 -78.08995 -2.755414 -283.9234 1.0
 -80.13082 -1.983802 -290.7156 1.0
 -92.45544 -8.71951 -275.3146 1.0
 -90.56533 -9.072783 -268.2958 1.0
 -89.33051 -11.17597 -276.8818 1.0
 -87.47064 -11.77474 -269.7345 1.0
 -96.5472 -7.602479 -281.0483 1.0
 -91.60471 -10.74831 -282.5423 1.0
 -98.06367 -5.844121 -288.7972 1.0
 -94.58134 -8.067264 -288.5177 1.0
 -87.44524 -12.26114 -277.3478 1.0
 -85.80139 -12.5614 -270.03 1.0
 -85.55996 -13.34631 -277.8138 1.0
 -84.13214 -13.34806 -270.3255 1.0
 -89.0849 -12.43911 -283.4134 1.0
 -86.56509 -14.12991 -284.2844 1.0
 -91.6165 -11.43979 -289.326 1.0
 -87.73209 -13.48423 -290.8245 1.0
 -88.97935 -4.09852 -275.6396 1.0
 -86.97051 -5.745774 -268.4736 1.0
 -86.49052 -6.35331 -277.2254 1.0
 -85.04774 -7.765 -269.6678 1.0
 -92.1786 -0.02309444 -280.761 1.0
 -87.60715 -4.194691 -282.4276 1.0
 -93.35124 1.419543 -287.9991 1.0
 -89.44128 -0.347973 -288.4387 1.0
 -84.30584 -7.65663 -277.8238 1.0
 -83.20876 -8.68006 -270.0791 1.0
 -82.12115 -8.95995 -278.4222 1.0
 -81.36976 -9.59511 -270.4904 1.0
 -84.75089 -6.23685 -283.3141 1.0
 -81.89461 -8.27901 -284.2005 1.0
 -84.24397 -2.905969 -289.1234 1.0
 -81.65957 -6.598423 -290.7037 1.0
 -81.89314 -15.1961 -278.2485 1.0
 -81.09348 -14.84782 -270.3671 1.0
 -82.33206 -17.11473 -284.7962 1.0
 -83.77186 -15.47713 -292.2558 1.0
 -78.48587 -10.7842 -278.6123 1.0
 -78.25564 -11.6438 -270.7933 1.0
 -76.79559 -10.72468 -284.989 1.0
 -78.97734 -10.36696 -292.5256 1.0
 -53.29309 -24.06224 -81.86243 1.0
 -51.95835 -7.163565 -79.27431 1.0
 -55.85689 -21.39621 -97.64635 1.0
 -54.34717 -6.023824 -95.86053 1.0
 -58.94003 -17.46086 -115.7173 1.0
 -56.15275 -4.226359 -114.8033 1.0
 -62.4387 -14.5025 -133.9062 1.0
 -59.89827 -2.247998 -134.2007 1.0
 -66.09641 -12.54034 -153.8184 1.0
 -62.7836 -0.5741692 -154.1754 1.0
 -70.04657 -12.22717 -173.6784 1.0
 -65.96552 -0.3671889 -175.0228 1.0
 -74.30419 -13.56606 -196.5014 1.0
 -69.21478 -0.9494154 -197.371 1.0
 -79.54165 -13.57777 -222.7744 1.0
 -73.69325 -2.633673 -224.8158 1.0
 -83.5442 -15.93815 -245.9937 1.0
 -76.94786 -4.239875 -247.3108 1.0
 -58.7765 -15.61682 -79.42635 1.0
 -52.66281 -15.10765 -80.05402 1.0
 -61.18612 -12.73486 -95.57159 1.0
 -55.2707 -12.66333 -96.24905 1.0
 -63.59562 -9.479011 -113.9071 1.0
 -58.06355 -10.61949 -114.7208 1.0
 -66.89417 -7.609141 -133.0031 1.0
 -61.23143 -8.33918 -134.0819 1.0
 -70.57846 -5.553285 -152.6574 1.0
 -64.6098 -6.81999 -153.8367 1.0
 -74.50842 -5.092723 -173.2355 1.0
 -68.21542 -6.17626 -174.0802 1.0
 -77.73281 -5.234185 -195.725 1.0
 -71.85592 -7.08717 -197.0421 1.0
 -81.23928 -6.47954 -222.9441 1.0
 -76.61852 -8.34605 -223.8684 1.0
 -85.53468 -7.516743 -245.6491 1.0
 -80.26789 -10.14819 -246.3237 1.0
 -47.38094 -14.4995 -81.4381 1.0
 -50.11988 -12.68459 -97.42844 1.0
 -53.00779 -10.70638 -115.9494 1.0
 -56.58835 -9.361748 -135.2489 1.0
 -60.22539 -8.207391 -154.6296 1.0
 -64.35835 -7.673307 -175.1458 1.0
 -68.16127 -8.260528 -197.8891 1.0
 -71.28699 -10.59686 -224.5654 1.0
 -72.71762 -13.56045 -247.4774 1.0
 -55.36921 -23.30894 -81.41916 1.0
 -55.20541 -15.26761 -79.96567 1.0
 -57.76836 -20.26148 -97.16812 1.0
 -57.55037 -12.45819 -95.76836 1.0
 -60.61392 -16.2785 -115.2836 1.0
 -60.26492 -10.42231 -114.263 1.0
 -63.87408 -13.22503 -133.5888 1.0
 -63.32586 -8.05768 -133.5658 1.0
 -67.51826 -10.94149 -153.4962 1.0
 -66.59293 -6.42832 -153.3652 1.0
 -71.18542 -10.73667 -173.5249 1.0
 -70.1102 -5.593929 -173.7577 1.0
 -75.07768 -11.74343 -196.3241 1.0
 -73.82369 -6.37601 -196.5916 1.0
 -80.97082 -11.85535 -222.6073 1.0
 -78.72352 -7.47132 -223.4291 1.0
 -85.06997 -14.25326 -245.6389 1.0
 -82.41944 -9.01304 -245.9293 1.0
 -51.03836 -23.03006 -82.01942 1.0
 -50.0536 -14.83963 -80.44157 1.0
 -53.82109 -20.27678 -97.95006 1.0
 -52.99104 -12.86847 -96.72974 1.0
 -56.99718 -17.19956 -116.0992 1.0
 -55.86218 -10.81668 -115.1785 1.0
 -60.35776 -14.73325 -134.5128 1.0
 -59.137 -8.62068 -134.598 1.0
 -64.11779 -13.2547 -153.9777 1.0
 -62.62667 -7.21165 -154.3082 1.0
 -68.39333 -13.06202 -174.0652 1.0
 -66.32063 -6.7586 -174.4027 1.0
 -72.45995 -14.24765 -196.8717 1.0
 -69.88815 -7.79833 -197.4926 1.0
 -76.92516 -14.31536 -223.3459 1.0
 -74.51352 -9.22078 -224.3077 1.0
 -81.12331 -17.35115 -246.2604 1.0
 -78.11634 -11.28333 -246.718 1.0
 -54.76039 -8.051365 -78.99441 1.0
 -56.72461 -6.339311 -95.56493 1.0
 -58.61734 -4.317222 -114.1448 1.0
 -61.93568 -2.286225 -133.718 1.0
 -65.17403 -0.5543567 -153.691 1.0
 -68.14039 -0.06359284 -174.7306 1.0
 -71.26363 -0.5803671 -196.9877 1.0
 -75.81226 -2.036846 -224.3809 1.0
 -79.47781 -3.477803 -246.7795 1.0
 -49.45681 -7.020336 -79.83064 1.0
 -52.07459 -6.448359 -96.27956 1.0
 -54.43064 -4.880376 -115.2019 1.0
 -57.98978 -3.121651 -134.7579 1.0
 -60.80964 -1.777829 -154.4625 1.0
 -64.05963 -1.594495 -175.3673 1.0
 -67.58221 -2.223793 -197.7561 1.0
 -71.92217 -4.074304 -225.0044 1.0
 -75.44573 -5.690875 -247.4038 1.0
 -58.10448 -18.86024 -80.21375 1.0
 -55.2699 -18.64449 -80.5502 1.0
 -60.54383 -15.60165 -95.97492 1.0
 -57.8607 -15.37891 -96.06364 1.0
 -63.28247 -12.26188 -114.3599 1.0
 -60.64506 -12.93955 -114.6634 1.0
 -66.41113 -9.911279 -133.0472 1.0
 -63.7338 -10.39435 -133.5623 1.0
 -70.40514 -7.835291 -152.8168 1.0
 -66.97604 -8.7021 -153.4382 1.0
 -74.30608 -7.389562 -173.0465 1.0
 -70.6107 -7.87999 -173.474 1.0
 -77.73677 -7.504225 -195.7179 1.0
 -74.50337 -8.7248 -196.3017 1.0
 -81.53483 -8.288218 -222.7695 1.0
 -79.58154 -9.7646 -223.1886 1.0
 -86.12267 -9.318767 -245.7255 1.0
 -83.66291 -11.48902 -245.6952 1.0
 -52.93229 -18.7095 -80.73817 1.0
 -50.41827 -18.2063 -81.07539 1.0
 -55.67251 -15.51255 -96.50277 1.0
 -53.48432 -15.64619 -96.94189 1.0
 -58.58919 -13.10785 -115.04 1.0
 -56.53332 -13.27616 -115.4166 1.0
 -61.72587 -10.62508 -134.0661 1.0
 -59.71795 -10.85582 -134.57 1.0
 -65.11055 -9.01764 -153.9236 1.0
 -63.24506 -9.33317 -154.409 1.0
 -68.80221 -8.33477 -173.7961 1.0
 -66.99372 -8.78956 -174.1182 1.0
 -72.61957 -9.30241 -196.8073 1.0
 -70.73577 -9.88001 -197.3129 1.0
 -77.61235 -10.47748 -223.6129 1.0
 -75.64316 -11.19036 -224.0373 1.0
 -81.53679 -12.67731 -246.1042 1.0
 -79.41068 -13.86561 -246.5131 1.0
 -58.74784 -12.54013 -78.99976 1.0
 -55.24479 -11.54468 -79.37534 1.0
 -60.74353 -9.695227 -95.30601 1.0
 -57.24004 -9.53747 -95.47307 1.0
 -62.80164 -7.267633 -113.7411 1.0
 -59.88479 -7.90506 -113.8626 1.0
 -66.163 -5.255541 -132.9544 1.0
 -62.91792 -5.72101 -133.5692 1.0
 -69.03922 -3.601618 -153.0155 1.0
 -66.20983 -4.154539 -153.2922 1.0
 -72.71097 -2.716944 -173.7974 1.0
 -69.6097 -3.307871 -174.0415 1.0
 -76.19547 -2.899968 -196.0338 1.0
 -73.14402 -4.02721 -196.8815 1.0
 -80.16654 -4.319129 -223.2451 1.0
 -77.86551 -5.17803 -223.6695 1.0
 -83.72253 -5.033467 -246.0782 1.0
 -81.17596 -6.53707 -246.1634 1.0
 -52.47298 -11.4312 -79.62918 1.0
 -49.65382 -11.47078 -80.10613 1.0
 -54.86889 -9.81411 -95.99533 1.0
 -52.49775 -10.09076 -96.51759 1.0
 -57.53792 -8.13113 -114.4015 1.0
 -55.19105 -8.35719 -114.9405 1.0
 -60.73698 -6.05327 -134.0977 1.0
 -58.55605 -6.38554 -134.6261 1.0
 -64.10905 -4.622339 -153.7498 1.0
 -62.00828 -5.090139 -154.2074 1.0
 -67.62862 -4.01775 -174.3643 1.0
 -65.64755 -4.72764 -174.6871 1.0
 -71.09228 -4.871929 -197.2769 1.0
 -69.04054 -5.71664 -197.6723 1.0
 -75.6247 -6.21462 -224.1239 1.0
 -73.38389 -7.2512 -224.5782 1.0
 -78.99898 -7.61906 -246.5432 1.0
 -76.822 -8.70106 -246.9229 1.0
 -48.42444 -17.49223 -81.67401 1.0
 -51.20082 -15.35508 -97.48194 1.0
 -53.95945 -12.95619 -116.0443 1.0
 -57.66715 -11.38494 -134.9445 1.0
 -61.34942 -9.878156 -154.4231 1.0
 -65.83765 -9.694615 -174.7222 1.0
 -69.56596 -9.985659 -197.5701 1.0
 -73.52959 -12.20586 -224.1221 1.0
 -74.86671 -16.01213 -247.2452 1.0
 -46.73116 -11.21449 -81.07962 1.0
 -49.68422 -9.836738 -97.14208 1.0
 -52.68449 -8.582707 -115.9185 1.0
 -55.9742 -7.118896 -135.3794 1.0
 -59.45012 -6.0866 -154.652 1.0
 -63.39935 -5.891174 -175.2154 1.0
 -66.90491 -6.3616 -198.022 1.0
 -70.1724 -8.286889 -225.0001 1.0
 -72.492 -10.32474 -247.7214 1.0

 76 77 79 78 1 28 48 46 
 80 81 83 82 9 32 52 50 
 84 85 87 86 13 29 56 54 
 88 89 91 90 15 33 60 58 
 92 93 95 94 19 30 49 47 
 96 97 99 98 20 34 53 51 
 100 101 103 102 21 31 57 55 
 104 105 107 106 22 35 61 59 
 77 80 82 79 28 9 50 48 
 81 108 109 83 32 2 70 52 
 85 88 90 87 29 15 58 56 
 89 110 111 91 33 17 72 60 
 93 96 98 95 30 20 51 49 
 97 112 113 99 34 23 71 53 
 101 104 106 103 31 22 59 57 
 105 114 115 107 35 24 73 61 
 78 79 85 84 46 48 29 13 
 82 83 89 88 50 52 33 15 
 86 87 117 116 54 56 36 3 
 90 91 119 118 58 60 38 10 
 94 95 101 100 47 49 31 21 
 98 99 105 104 51 53 35 22 
 102 103 121 120 55 57 37 25 
 106 107 123 122 59 61 39 26 
 79 82 88 85 48 50 15 29 
 83 109 110 89 52 70 17 33 
 87 90 118 117 56 58 10 36 
 91 111 124 119 60 72 4 38 
 95 98 104 101 49 51 22 31 
 99 113 114 105 53 71 24 35 
 103 106 122 121 57 59 26 37 
 107 115 125 123 61 73 27 39 
 19 30 49 47 76 77 79 78 
 20 34 53 51 80 81 83 82 
 21 31 57 55 84 85 87 86 
 22 35 61 59 88 89 91 90 
 5 40 63 62 92 93 95 94 
 11 42 65 64 96 97 99 98 
 14 41 67 66 100 101 103 102 
 16 43 69 68 104 105 107 106 
 30 20 51 49 77 80 82 79 
 34 23 71 53 81 108 109 83 
 31 22 59 57 85 88 90 87 
 35 24 73 61 89 110 111 91 
 40 11 64 63 93 96 98 95 
 42 6 74 65 97 112 113 99 
 41 16 68 67 101 104 106 103 
 43 18 75 69 105 114 115 107 
 47 49 31 21 78 79 85 84 
 51 53 35 22 82 83 89 88 
 55 57 37 25 86 87 117 116 
 59 61 39 26 90 91 119 118 
 62 63 41 14 94 95 101 100 
 64 65 43 16 98 99 105 104 
 66 67 44 7 102 103 121 120 
 68 69 45 12 106 107 123 122 
 49 51 22 31 79 82 88 85 
 53 71 24 35 83 109 110 89 
 57 59 26 37 87 90 118 117 
 61 73 27 39 91 111 124 119 
 63 64 16 41 95 98 104 101 
 65 74 18 43 99 113 114 105 
 67 68 12 44 103 106 122 121 
 69 75 8 45 107 115 125 123 
 129 307 362 361 133 309 364 363 
 133 309 364 363 137 311 366 365 
 137 311 366 365 141 313 368 367 
 141 313 368 367 151 315 370 369 
 151 315 370 369 152 317 372 371 
 152 317 372 371 153 319 374 373 
 153 319 374 373 166 321 376 375 
 166 321 376 375 167 323 378 377 
 168 200 225 223 169 198 224 222 
 169 198 224 222 170 202 227 226 
 170 202 227 226 171 204 229 228 
 180 208 233 231 178 206 232 230 
 178 206 232 230 182 210 235 234 
 182 210 235 234 184 212 237 236 
 187 201 241 239 186 199 240 238 
 186 199 240 238 190 203 243 242 
 190 203 243 242 192 205 245 244 
 189 209 249 247 188 207 248 246 
 188 207 248 246 191 211 251 250 
 191 211 251 250 193 213 253 252 
 200 180 231 225 198 178 230 224 
 198 178 230 224 202 182 234 227 
 202 182 234 227 204 184 236 229 
 208 156 255 233 206 157 254 232 
 206 157 254 232 210 162 256 235 
 210 162 256 235 212 164 257 237 
 201 189 247 241 199 188 246 240 
 199 188 246 240 203 191 250 243 
 203 191 250 243 205 193 252 245 
 209 195 259 249 207 194 258 248 
 207 194 258 248 211 196 260 251 
 211 196 260 251 213 197 261 253 
 223 225 201 187 222 224 199 186 
 222 224 199 186 226 227 203 190 
 226 227 203 190 228 229 205 192 
 231 233 209 189 230 232 207 188 
 230 232 207 188 234 235 211 191 
 234 235 211 191 236 237 213 193 
 239 241 215 173 238 240 214 174 
 238 240 214 174 242 243 216 175 
 242 243 216 175 244 245 217 176 
 247 249 219 181 246 248 218 179 
 246 248 218 179 250 251 220 183 
 250 251 220 183 252 253 221 185 
 225 231 189 201 224 230 188 199 
 224 230 188 199 227 234 191 203 
 227 234 191 203 229 236 193 205 
 233 255 195 209 232 254 194 207 
 232 254 194 207 235 256 196 211 
 235 256 196 211 237 257 197 213 
 241 247 181 215 240 246 179 214 
 240 246 179 214 243 250 183 216 
 243 250 183 216 245 252 185 217 
 249 259 160 219 248 258 161 218 
 248 258 161 218 251 260 163 220 
 251 260 163 220 253 261 165 221 
 262 325 380 379 264 327 382 381 
 264 327 382 381 266 329 384 383 
 266 329 384 383 268 331 386 385 
 268 331 386 385 270 333 388 387 
 270 333 388 387 272 335 390 389 
 272 335 390 389 274 337 392 391 
 274 337 392 391 276 339 394 393 
 276 339 394 393 278 341 396 395 
 280 308 398 397 282 310 400 399 
 282 310 400 399 284 312 402 401 
 284 312 402 401 286 314 404 403 
 286 314 404 403 288 316 406 405 
 288 316 406 405 290 318 408 407 
 290 318 408 407 292 320 410 409 
 292 320 410 409 294 322 412 411 
 294 322 412 411 296 324 414 413 
 281 326 416 415 283 328 418 417 
 283 328 418 417 285 330 420 419 
 285 330 420 419 287 332 422 421 
 287 332 422 421 289 334 424 423 
 289 334 424 423 291 336 426 425 
 291 336 426 425 293 338 428 427 
 293 338 428 427 295 340 430 429 
 295 340 430 429 297 342 432 431 
 307 262 379 362 309 264 381 364 
 309 264 381 364 311 266 383 366 
 311 266 383 366 313 268 385 368 
 313 268 385 368 315 270 387 370 
 315 270 387 370 317 272 389 372 
 317 272 389 372 319 274 391 374 
 319 274 391 374 321 276 393 376 
 321 276 393 376 323 278 395 378 
 325 127 433 380 327 130 434 382 
 327 130 434 382 329 134 435 384 
 329 134 435 384 331 138 436 386 
 331 138 436 386 333 142 437 388 
 333 142 437 388 335 144 438 390 
 335 144 438 390 337 146 439 392 
 337 146 439 392 339 154 440 394 
 339 154 440 394 341 155 441 396 
 308 281 415 398 310 283 417 400 
 310 283 417 400 312 285 419 402 
 312 285 419 402 314 287 421 404 
 314 287 421 404 316 289 423 406 
 316 289 423 406 318 291 425 408 
 318 291 425 408 320 293 427 410 
 320 293 427 410 322 295 429 412 
 322 295 429 412 324 297 431 414 
 326 298 442 416 328 299 443 418 
 328 299 443 418 330 300 444 420 
 330 300 444 420 332 301 445 422 
 332 301 445 422 334 302 446 424 
 334 302 446 424 336 303 447 426 
 336 303 447 426 338 304 448 428 
 338 304 448 428 340 305 449 430 
 340 305 449 430 342 306 450 432 
 361 362 308 280 363 364 310 282 
 363 364 310 282 365 366 312 284 
 365 366 312 284 367 368 314 286 
 367 368 314 286 369 370 316 288 
 369 370 316 288 371 372 318 290 
 371 372 318 290 373 374 320 292 
 373 374 320 292 375 376 322 294 
 375 376 322 294 377 378 324 296 
 379 380 326 281 381 382 328 283 
 381 382 328 283 383 384 330 285 
 383 384 330 285 385 386 332 287 
 385 386 332 287 387 388 334 289 
 387 388 334 289 389 390 336 291 
 389 390 336 291 391 392 338 293 
 391 392 338 293 393 394 340 295 
 393 394 340 295 395 396 342 297 
 397 398 343 128 399 400 344 132 
 399 400 344 132 401 402 345 136 
 401 402 345 136 403 404 346 140 
 403 404 346 140 405 406 347 148 
 405 406 347 148 407 408 348 149 
 407 408 348 149 409 410 349 150 
 409 410 349 150 411 412 350 177 
 411 412 350 177 413 414 351 172 
 415 416 352 263 417 418 353 265 
 417 418 353 265 419 420 354 267 
 419 420 354 267 421 422 355 269 
 421 422 355 269 423 424 356 271 
 423 424 356 271 425 426 357 273 
 425 426 357 273 427 428 358 275 
 427 428 358 275 429 430 359 277 
 429 430 359 277 431 432 360 279 
 362 379 281 308 364 381 283 310 
 364 381 283 310 366 383 285 312 
 366 383 285 312 368 385 287 314 
 368 385 287 314 370 387 289 316 
 370 387 289 316 372 389 291 318 
 372 389 291 318 374 391 293 320 
 374 391 293 320 376 393 295 322 
 376 393 295 322 378 395 297 324 
 380 433 298 326 382 434 299 328 
 382 434 299 328 384 435 300 330 
 384 435 300 330 386 436 301 332 
 386 436 301 332 388 437 302 334 
 388 437 302 334 390 438 303 336 
 390 438 303 336 392 439 304 338 
 392 439 304 338 394 440 305 340 
 394 440 305 340 396 441 306 342 
 398 415 263 343 400 417 265 344 
 400 417 265 344 402 419 267 345 
 402 419 267 345 404 421 269 346 
 404 421 269 346 406 423 271 347 
 406 423 271 347 408 425 273 348 
 408 425 273 348 410 427 275 349 
 410 427 275 349 412 429 277 350 
 412 429 277 350 414 431 279 351 
 416 442 126 352 418 443 131 353 
 418 443 131 353 420 444 135 354 
 420 444 135 354 422 445 139 355 
 422 445 139 355 424 446 143 356 
 424 446 143 356 426 447 145 357 
 426 447 145 357 428 448 147 358 
 428 448 147 358 430 449 158 359 
 430 449 158 359 432 450 159 360 
 167 323 378 377 168 200 225 223 
 323 278 395 378 200 180 231 225 
 278 341 396 395 180 208 233 231 
 341 155 441 396 208 156 255 233 
 377 378 324 296 223 225 201 187 
 296 324 414 413 187 201 241 239 
 413 414 351 172 239 241 215 173 
 378 395 297 324 225 231 189 201 
 395 396 342 297 231 233 209 189 
 396 441 306 342 233 255 195 209 
 324 297 431 414 201 189 247 241 
 297 342 432 431 189 209 249 247 
 342 306 450 432 209 195 259 249 
 414 431 279 351 241 247 181 215 
 431 432 360 279 247 249 219 181 
 432 450 159 360 249 259 160 219 
 1 28 48 46 129 307 362 361 
 46 48 29 13 361 362 308 280 
 28 9 50 48 307 262 379 362 
 9 32 52 50 262 325 380 379 
 32 2 70 52 325 127 433 380 
 13 29 56 54 280 308 398 397 
 48 50 15 29 362 379 281 308 
 50 52 33 15 379 380 326 281 
 52 70 17 33 380 433 298 326 
 54 56 36 3 397 398 343 128 
 29 15 58 56 308 281 415 398 
 15 33 60 58 281 326 416 415 
 33 17 72 60 326 298 442 416 
 56 58 10 36 398 415 263 343 
 58 60 38 10 415 416 352 263 
 60 72 4 38 416 442 126 352 
